8141
Atoms. Timestep: 0
4 0 0 0
4 0.557139 0.964992 0
4 1.11428 0 0
4 1.67142 0.964992 0
4 2.22855 0 0
4 2.78569 0.964992 0
4 3.34283 0 0
4 3.89997 0.964992 0
4 4.45711 0 0
4 5.01425 0.964992 0
4 5.57139 0 0
4 6.12852 0.964992 0
4 6.68566 0 0
4 7.2428 0.964992 0
4 7.79994 0 0
4 8.35708 0.964992 0
4 8.91422 0 0
4 9.47136 0.964992 0
4 10.0285 0 0
4 10.5856 0.964992 0
4 11.1428 0 0
4 11.6999 0.964992 0
4 12.257 0 0
4 12.8142 0.964992 0
4 13.3713 0 0
4 13.9285 0.964992 0
4 14.4856 0 0
4 15.0427 0.964992 0
4 15.5999 0 0
4 16.157 0.964992 0
4 16.7142 0 0
4 17.2713 0.964992 0
4 17.8284 0 0
4 18.3856 0.964992 0
4 18.9427 0 0
4 19.4998 0.964992 0
4 20.057 0 0
4 20.6141 0.964992 0
4 21.1713 0 0
4 21.7284 0.964992 0
4 22.2855 0 0
4 22.8427 0.964992 0
4 23.3998 0 0
4 23.957 0.964992 0
4 24.5141 0 0
4 25.0712 0.964992 0
4 25.6284 0 0
4 26.1855 0.964992 0
4 26.7427 0 0
4 27.2998 0.964992 0
4 27.8569 0 0
4 28.4141 0.964992 0
4 28.9712 0 0
4 29.5283 0.964992 0
4 30.0855 0 0
4 30.6426 0.964992 0
4 31.1998 0 0
4 31.7569 0.964992 0
4 32.314 0 0
4 32.8712 0.964992 0
4 33.4283 0 0
4 33.9855 0.964992 0
4 34.5426 0 0
4 35.0997 0.964992 0
4 35.6569 0 0
4 36.214 0.964992 0
4 36.7711 0 0
4 37.3283 0.964992 0
4 37.8854 0 0
4 38.4426 0.964992 0
4 38.9997 0 0
4 39.5568 0.964992 0
4 40.114 0 0
4 40.6711 0.964992 0
4 41.2283 0 0
4 41.7854 0.964992 0
4 42.3425 0 0
4 42.8997 0.964992 0
4 43.4568 0 0
4 44.0139 0.964992 0
4 44.5711 0 0
4 45.1282 0.964992 0
4 45.6854 0 0
4 46.2425 0.964992 0
4 46.7996 0 0
4 47.3568 0.964992 0
4 47.9139 0 0
4 48.4711 0.964992 0
4 49.0282 0 0
4 49.5853 0.964992 0
4 50.1425 0 0
4 50.6996 0.964992 0
4 51.2567 0 0
4 51.8139 0.964992 0
4 52.371 0 0
4 52.9282 0.964992 0
4 53.4853 0 0
4 54.0424 0.964992 0
4 54.5996 0 0
4 55.1567 0.964992 0
4 0 1.92998 0
3 0.557139 2.89498 0
4 1.11428 1.92998 0
3 1.67142 2.89498 0
4 2.22855 1.92998 0
3 2.78569 2.89498 0
4 3.34283 1.92998 0
3 3.89997 2.89498 0
4 4.45711 1.92998 0
3 5.01425 2.89498 0
4 5.57139 1.92998 0
3 6.12852 2.89498 0
4 6.68566 1.92998 0
3 7.2428 2.89498 0
4 7.79994 1.92998 0
3 8.35708 2.89498 0
4 8.91422 1.92998 0
3 9.47136 2.89498 0
4 10.0285 1.92998 0
3 10.5856 2.89498 0
4 11.1428 1.92998 0
3 11.6999 2.89498 0
4 12.257 1.92998 0
3 12.8142 2.89498 0
4 13.3713 1.92998 0
3 13.9285 2.89498 0
4 14.4856 1.92998 0
3 15.0427 2.89498 0
4 15.5999 1.92998 0
3 16.157 2.89498 0
4 16.7142 1.92998 0
3 17.2713 2.89498 0
4 17.8284 1.92998 0
3 18.3856 2.89498 0
4 18.9427 1.92998 0
3 19.4998 2.89498 0
4 20.057 1.92998 0
3 20.6141 2.89498 0
4 21.1713 1.92998 0
3 21.7284 2.89498 0
4 22.2855 1.92998 0
1 22.8427 2.89498 0
4 23.3998 1.92998 0
1 23.957 2.89498 0
4 24.5141 1.92998 0
1 25.0712 2.89498 0
4 25.6284 1.92998 0
1 26.1855 2.89498 0
4 26.7427 1.92998 0
1 27.2998 2.89498 0
4 27.8569 1.92998 0
1 28.4141 2.89498 0
4 28.9712 1.92998 0
1 29.5283 2.89498 0
4 30.0855 1.92998 0
1 30.6426 2.89498 0
4 31.1998 1.92998 0
1 31.7569 2.89498 0
4 32.314 1.92998 0
1 32.8712 2.89498 0
4 33.4283 1.92998 0
1 33.9855 2.89498 0
4 34.5426 1.92998 0
1 35.0997 2.89498 0
4 35.6569 1.92998 0
1 36.214 2.89498 0
4 36.7711 1.92998 0
1 37.3283 2.89498 0
4 37.8854 1.92998 0
1 38.4426 2.89498 0
4 38.9997 1.92998 0
1 39.5568 2.89498 0
4 40.114 1.92998 0
1 40.6711 2.89498 0
4 41.2283 1.92998 0
1 41.7854 2.89498 0
4 42.3425 1.92998 0
1 42.8997 2.89498 0
4 43.4568 1.92998 0
1 44.0139 2.89498 0
4 44.5711 1.92998 0
1 45.1282 2.89498 0
4 45.6854 1.92998 0
1 46.2425 2.89498 0
4 46.7996 1.92998 0
1 47.3568 2.89498 0
4 47.9139 1.92998 0
1 48.4711 2.89498 0
4 49.0282 1.92998 0
1 49.5853 2.89498 0
4 50.1425 1.92998 0
1 50.6996 2.89498 0
4 51.2567 1.92998 0
1 51.8139 2.89498 0
4 52.371 1.92998 0
1 52.9282 2.89498 0
4 53.4853 1.92998 0
1 54.0424 2.89498 0
4 54.5996 1.92998 0
1 55.1567 2.89498 0
3 0 3.85997 0
3 0.557139 4.82496 0
3 1.11428 3.85997 0
3 1.67142 4.82496 0
3 2.22855 3.85997 0
3 2.78569 4.82496 0
3 3.34283 3.85997 0
3 3.89997 4.82496 0
3 4.45711 3.85997 0
3 5.01425 4.82496 0
3 5.57139 3.85997 0
3 6.12852 4.82496 0
3 6.68566 3.85997 0
3 7.2428 4.82496 0
3 7.79994 3.85997 0
3 8.35708 4.82496 0
3 8.91422 3.85997 0
3 9.47136 4.82496 0
3 10.0285 3.85997 0
3 10.5856 4.82496 0
3 11.1428 3.85997 0
3 11.6999 4.82496 0
3 12.257 3.85997 0
3 12.8142 4.82496 0
3 13.3713 3.85997 0
3 13.9285 4.82496 0
3 14.4856 3.85997 0
3 15.0427 4.82496 0
3 15.5999 3.85997 0
3 16.157 4.82496 0
3 16.7142 3.85997 0
3 17.2713 4.82496 0
3 17.8284 3.85997 0
3 18.3856 4.82496 0
3 18.9427 3.85997 0
3 19.4998 4.82496 0
3 20.057 3.85997 0
3 20.6141 4.82496 0
3 21.1713 3.85997 0
3 21.7284 4.82496 0
3 22.2855 3.85997 0
1 22.8427 4.82496 0
1 23.3998 3.85997 0
1 23.957 4.82496 0
1 24.5141 3.85997 0
1 25.0712 4.82496 0
1 25.6284 3.85997 0
1 26.1855 4.82496 0
1 26.7427 3.85997 0
1 27.2998 4.82496 0
1 27.8569 3.85997 0
1 28.4141 4.82496 0
1 28.9712 3.85997 0
1 29.5283 4.82496 0
1 30.0855 3.85997 0
1 30.6426 4.82496 0
1 31.1998 3.85997 0
1 31.7569 4.82496 0
1 32.314 3.85997 0
1 32.8712 4.82496 0
1 33.4283 3.85997 0
1 33.9855 4.82496 0
1 34.5426 3.85997 0
1 35.0997 4.82496 0
1 35.6569 3.85997 0
1 36.214 4.82496 0
1 36.7711 3.85997 0
1 37.3283 4.82496 0
1 37.8854 3.85997 0
1 38.4426 4.82496 0
1 38.9997 3.85997 0
1 39.5568 4.82496 0
1 40.114 3.85997 0
1 40.6711 4.82496 0
1 41.2283 3.85997 0
1 41.7854 4.82496 0
1 42.3425 3.85997 0
1 42.8997 4.82496 0
1 43.4568 3.85997 0
1 44.0139 4.82496 0
1 44.5711 3.85997 0
1 45.1282 4.82496 0
1 45.6854 3.85997 0
1 46.2425 4.82496 0
1 46.7996 3.85997 0
1 47.3568 4.82496 0
1 47.9139 3.85997 0
1 48.4711 4.82496 0
1 49.0282 3.85997 0
1 49.5853 4.82496 0
1 50.1425 3.85997 0
1 50.6996 4.82496 0
1 51.2567 3.85997 0
1 51.8139 4.82496 0
1 52.371 3.85997 0
1 52.9282 4.82496 0
1 53.4853 3.85997 0
1 54.0424 4.82496 0
1 54.5996 3.85997 0
1 55.1567 4.82496 0
3 0 5.78995 0
3 0.557139 6.75495 0
3 1.11428 5.78995 0
3 1.67142 6.75495 0
3 2.22855 5.78995 0
3 2.78569 6.75495 0
3 3.34283 5.78995 0
3 3.89997 6.75495 0
3 4.45711 5.78995 0
3 5.01425 6.75495 0
3 5.57139 5.78995 0
3 6.12852 6.75495 0
3 6.68566 5.78995 0
3 7.2428 6.75495 0
3 7.79994 5.78995 0
3 8.35708 6.75495 0
3 8.91422 5.78995 0
3 9.47136 6.75495 0
3 10.0285 5.78995 0
3 10.5856 6.75495 0
3 11.1428 5.78995 0
3 11.6999 6.75495 0
3 12.257 5.78995 0
3 12.8142 6.75495 0
3 13.3713 5.78995 0
3 13.9285 6.75495 0
3 14.4856 5.78995 0
3 15.0427 6.75495 0
3 15.5999 5.78995 0
3 16.157 6.75495 0
3 16.7142 5.78995 0
3 17.2713 6.75495 0
3 17.8284 5.78995 0
3 18.3856 6.75495 0
3 18.9427 5.78995 0
3 19.4998 6.75495 0
3 20.057 5.78995 0
3 20.6141 6.75495 0
3 21.1713 5.78995 0
3 21.7284 6.75495 0
3 22.2855 5.78995 0
1 22.8427 6.75495 0
1 23.3998 5.78995 0
1 23.957 6.75495 0
1 24.5141 5.78995 0
1 25.0712 6.75495 0
1 25.6284 5.78995 0
1 26.1855 6.75495 0
1 26.7427 5.78995 0
1 27.2998 6.75495 0
1 27.8569 5.78995 0
1 28.4141 6.75495 0
1 28.9712 5.78995 0
1 29.5283 6.75495 0
1 30.0855 5.78995 0
1 30.6426 6.75495 0
1 31.1998 5.78995 0
1 31.7569 6.75495 0
1 32.314 5.78995 0
1 32.8712 6.75495 0
1 33.4283 5.78995 0
1 33.9855 6.75495 0
1 34.5426 5.78995 0
1 35.0997 6.75495 0
1 35.6569 5.78995 0
1 36.214 6.75495 0
1 36.7711 5.78995 0
1 37.3283 6.75495 0
1 37.8854 5.78995 0
1 38.4426 6.75495 0
1 38.9997 5.78995 0
1 39.5568 6.75495 0
1 40.114 5.78995 0
1 40.6711 6.75495 0
1 41.2283 5.78995 0
1 41.7854 6.75495 0
1 42.3425 5.78995 0
1 42.8997 6.75495 0
1 43.4568 5.78995 0
1 44.0139 6.75495 0
1 44.5711 5.78995 0
1 45.1282 6.75495 0
1 45.6854 5.78995 0
1 46.2425 6.75495 0
1 46.7996 5.78995 0
1 47.3568 6.75495 0
1 47.9139 5.78995 0
1 48.4711 6.75495 0
1 49.0282 5.78995 0
1 49.5853 6.75495 0
1 50.1425 5.78995 0
1 50.6996 6.75495 0
1 51.2567 5.78995 0
1 51.8139 6.75495 0
1 52.371 5.78995 0
1 52.9282 6.75495 0
1 53.4853 5.78995 0
1 54.0424 6.75495 0
1 54.5996 5.78995 0
1 55.1567 6.75495 0
3 0 7.71994 0
3 0.557139 8.68493 0
3 1.11428 7.71994 0
3 1.67142 8.68493 0
3 2.22855 7.71994 0
3 2.78569 8.68493 0
3 3.34283 7.71994 0
3 3.89997 8.68493 0
3 4.45711 7.71994 0
3 5.01425 8.68493 0
3 5.57139 7.71994 0
3 6.12852 8.68493 0
3 6.68566 7.71994 0
3 7.2428 8.68493 0
3 7.79994 7.71994 0
3 8.35708 8.68493 0
3 8.91422 7.71994 0
3 9.47136 8.68493 0
3 10.0285 7.71994 0
3 10.5856 8.68493 0
3 11.1428 7.71994 0
3 11.6999 8.68493 0
3 12.257 7.71994 0
3 12.8142 8.68493 0
3 13.3713 7.71994 0
3 13.9285 8.68493 0
3 14.4856 7.71994 0
3 15.0427 8.68493 0
3 15.5999 7.71994 0
3 16.157 8.68493 0
3 16.7142 7.71994 0
3 17.2713 8.68493 0
3 17.8284 7.71994 0
3 18.3856 8.68493 0
3 18.9427 7.71994 0
3 19.4998 8.68493 0
3 20.057 7.71994 0
3 20.6141 8.68493 0
3 21.1713 7.71994 0
3 21.7284 8.68493 0
3 22.2855 7.71994 0
1 22.8427 8.68493 0
1 23.3998 7.71994 0
1 23.957 8.68493 0
1 24.5141 7.71994 0
1 25.0712 8.68493 0
1 25.6284 7.71994 0
1 26.1855 8.68493 0
1 26.7427 7.71994 0
1 27.2998 8.68493 0
1 27.8569 7.71994 0
1 28.4141 8.68493 0
1 28.9712 7.71994 0
1 29.5283 8.68493 0
1 30.0855 7.71994 0
1 30.6426 8.68493 0
1 31.1998 7.71994 0
1 31.7569 8.68493 0
1 32.314 7.71994 0
1 32.8712 8.68493 0
1 33.4283 7.71994 0
1 33.9855 8.68493 0
1 34.5426 7.71994 0
1 35.0997 8.68493 0
1 35.6569 7.71994 0
1 36.214 8.68493 0
1 36.7711 7.71994 0
1 37.3283 8.68493 0
1 37.8854 7.71994 0
1 38.4426 8.68493 0
1 38.9997 7.71994 0
1 39.5568 8.68493 0
1 40.114 7.71994 0
1 40.6711 8.68493 0
1 41.2283 7.71994 0
1 41.7854 8.68493 0
1 42.3425 7.71994 0
1 42.8997 8.68493 0
1 43.4568 7.71994 0
1 44.0139 8.68493 0
1 44.5711 7.71994 0
1 45.1282 8.68493 0
1 45.6854 7.71994 0
1 46.2425 8.68493 0
1 46.7996 7.71994 0
1 47.3568 8.68493 0
1 47.9139 7.71994 0
1 48.4711 8.68493 0
1 49.0282 7.71994 0
1 49.5853 8.68493 0
1 50.1425 7.71994 0
1 50.6996 8.68493 0
1 51.2567 7.71994 0
1 51.8139 8.68493 0
1 52.371 7.71994 0
1 52.9282 8.68493 0
1 53.4853 7.71994 0
1 54.0424 8.68493 0
1 54.5996 7.71994 0
1 55.1567 8.68493 0
3 0 9.64992 0
3 0.557139 10.6149 0
3 1.11428 9.64992 0
3 1.67142 10.6149 0
3 2.22855 9.64992 0
3 2.78569 10.6149 0
3 3.34283 9.64992 0
3 3.89997 10.6149 0
3 4.45711 9.64992 0
3 5.01425 10.6149 0
3 5.57139 9.64992 0
3 6.12852 10.6149 0
3 6.68566 9.64992 0
3 7.2428 10.6149 0
3 7.79994 9.64992 0
3 8.35708 10.6149 0
3 8.91422 9.64992 0
3 9.47136 10.6149 0
3 10.0285 9.64992 0
3 10.5856 10.6149 0
3 11.1428 9.64992 0
3 11.6999 10.6149 0
3 12.257 9.64992 0
3 12.8142 10.6149 0
3 13.3713 9.64992 0
3 13.9285 10.6149 0
3 14.4856 9.64992 0
3 15.0427 10.6149 0
3 15.5999 9.64992 0
3 16.157 10.6149 0
3 16.7142 9.64992 0
3 17.2713 10.6149 0
3 17.8284 9.64992 0
3 18.3856 10.6149 0
3 18.9427 9.64992 0
3 19.4998 10.6149 0
3 20.057 9.64992 0
3 20.6141 10.6149 0
3 21.1713 9.64992 0
3 21.7284 10.6149 0
3 22.2855 9.64992 0
1 22.8427 10.6149 0
1 23.3998 9.64992 0
1 23.957 10.6149 0
1 24.5141 9.64992 0
1 25.0712 10.6149 0
1 25.6284 9.64992 0
1 26.1855 10.6149 0
1 26.7427 9.64992 0
1 27.2998 10.6149 0
1 27.8569 9.64992 0
1 28.4141 10.6149 0
1 28.9712 9.64992 0
1 29.5283 10.6149 0
1 30.0855 9.64992 0
1 30.6426 10.6149 0
1 31.1998 9.64992 0
1 31.7569 10.6149 0
1 32.314 9.64992 0
1 32.8712 10.6149 0
1 33.4283 9.64992 0
1 33.9855 10.6149 0
1 34.5426 9.64992 0
1 35.0997 10.6149 0
1 35.6569 9.64992 0
1 36.214 10.6149 0
1 36.7711 9.64992 0
1 37.3283 10.6149 0
1 37.8854 9.64992 0
1 38.4426 10.6149 0
1 38.9997 9.64992 0
1 39.5568 10.6149 0
1 40.114 9.64992 0
1 40.6711 10.6149 0
1 41.2283 9.64992 0
1 41.7854 10.6149 0
1 42.3425 9.64992 0
1 42.8997 10.6149 0
1 43.4568 9.64992 0
1 44.0139 10.6149 0
1 44.5711 9.64992 0
1 45.1282 10.6149 0
1 45.6854 9.64992 0
1 46.2425 10.6149 0
1 46.7996 9.64992 0
1 47.3568 10.6149 0
1 47.9139 9.64992 0
1 48.4711 10.6149 0
1 49.0282 9.64992 0
1 49.5853 10.6149 0
1 50.1425 9.64992 0
1 50.6996 10.6149 0
1 51.2567 9.64992 0
1 51.8139 10.6149 0
1 52.371 9.64992 0
1 52.9282 10.6149 0
1 53.4853 9.64992 0
1 54.0424 10.6149 0
1 54.5996 9.64992 0
1 55.1567 10.6149 0
3 0 11.5799 0
3 0.557139 12.5449 0
3 1.11428 11.5799 0
3 1.67142 12.5449 0
3 2.22855 11.5799 0
3 2.78569 12.5449 0
3 3.34283 11.5799 0
3 3.89997 12.5449 0
3 4.45711 11.5799 0
3 5.01425 12.5449 0
3 5.57139 11.5799 0
3 6.12852 12.5449 0
3 6.68566 11.5799 0
3 7.2428 12.5449 0
3 7.79994 11.5799 0
3 8.35708 12.5449 0
3 8.91422 11.5799 0
3 9.47136 12.5449 0
3 10.0285 11.5799 0
3 10.5856 12.5449 0
3 11.1428 11.5799 0
3 11.6999 12.5449 0
3 12.257 11.5799 0
3 12.8142 12.5449 0
3 13.3713 11.5799 0
3 13.9285 12.5449 0
3 14.4856 11.5799 0
3 15.0427 12.5449 0
3 15.5999 11.5799 0
3 16.157 12.5449 0
3 16.7142 11.5799 0
3 17.2713 12.5449 0
3 17.8284 11.5799 0
3 18.3856 12.5449 0
3 18.9427 11.5799 0
3 19.4998 12.5449 0
3 20.057 11.5799 0
3 20.6141 12.5449 0
3 21.1713 11.5799 0
3 21.7284 12.5449 0
3 22.2855 11.5799 0
1 22.8427 12.5449 0
1 23.3998 11.5799 0
1 23.957 12.5449 0
1 24.5141 11.5799 0
1 25.0712 12.5449 0
1 25.6284 11.5799 0
1 26.1855 12.5449 0
1 26.7427 11.5799 0
1 27.2998 12.5449 0
1 27.8569 11.5799 0
1 28.4141 12.5449 0
1 28.9712 11.5799 0
1 29.5283 12.5449 0
1 30.0855 11.5799 0
1 30.6426 12.5449 0
1 31.1998 11.5799 0
1 31.7569 12.5449 0
1 32.314 11.5799 0
1 32.8712 12.5449 0
1 33.4283 11.5799 0
1 33.9855 12.5449 0
1 34.5426 11.5799 0
1 35.0997 12.5449 0
1 35.6569 11.5799 0
1 36.214 12.5449 0
1 36.7711 11.5799 0
1 37.3283 12.5449 0
1 37.8854 11.5799 0
1 38.4426 12.5449 0
1 38.9997 11.5799 0
1 39.5568 12.5449 0
1 40.114 11.5799 0
1 40.6711 12.5449 0
1 41.2283 11.5799 0
1 41.7854 12.5449 0
1 42.3425 11.5799 0
1 42.8997 12.5449 0
1 43.4568 11.5799 0
1 44.0139 12.5449 0
1 44.5711 11.5799 0
1 45.1282 12.5449 0
1 45.6854 11.5799 0
1 46.2425 12.5449 0
1 46.7996 11.5799 0
1 47.3568 12.5449 0
1 47.9139 11.5799 0
1 48.4711 12.5449 0
1 49.0282 11.5799 0
1 49.5853 12.5449 0
1 50.1425 11.5799 0
1 50.6996 12.5449 0
1 51.2567 11.5799 0
1 51.8139 12.5449 0
1 52.371 11.5799 0
1 52.9282 12.5449 0
1 53.4853 11.5799 0
1 54.0424 12.5449 0
1 54.5996 11.5799 0
1 55.1567 12.5449 0
3 0 13.5099 0
3 0.557139 14.4749 0
3 1.11428 13.5099 0
3 1.67142 14.4749 0
3 2.22855 13.5099 0
3 2.78569 14.4749 0
3 3.34283 13.5099 0
3 3.89997 14.4749 0
3 4.45711 13.5099 0
3 5.01425 14.4749 0
3 5.57139 13.5099 0
3 6.12852 14.4749 0
3 6.68566 13.5099 0
3 7.2428 14.4749 0
3 7.79994 13.5099 0
3 8.35708 14.4749 0
3 8.91422 13.5099 0
3 9.47136 14.4749 0
3 10.0285 13.5099 0
3 10.5856 14.4749 0
3 11.1428 13.5099 0
3 11.6999 14.4749 0
3 12.257 13.5099 0
3 12.8142 14.4749 0
3 13.3713 13.5099 0
3 13.9285 14.4749 0
3 14.4856 13.5099 0
3 15.0427 14.4749 0
3 15.5999 13.5099 0
3 16.157 14.4749 0
3 16.7142 13.5099 0
3 17.2713 14.4749 0
3 17.8284 13.5099 0
3 18.3856 14.4749 0
3 18.9427 13.5099 0
3 19.4998 14.4749 0
3 20.057 13.5099 0
3 20.6141 14.4749 0
3 21.1713 13.5099 0
3 21.7284 14.4749 0
3 22.2855 13.5099 0
1 22.8427 14.4749 0
1 23.3998 13.5099 0
1 23.957 14.4749 0
1 24.5141 13.5099 0
1 25.0712 14.4749 0
1 25.6284 13.5099 0
1 26.1855 14.4749 0
1 26.7427 13.5099 0
1 27.2998 14.4749 0
1 27.8569 13.5099 0
1 28.4141 14.4749 0
1 28.9712 13.5099 0
1 29.5283 14.4749 0
1 30.0855 13.5099 0
1 30.6426 14.4749 0
1 31.1998 13.5099 0
1 31.7569 14.4749 0
1 32.314 13.5099 0
1 32.8712 14.4749 0
1 33.4283 13.5099 0
1 33.9855 14.4749 0
1 34.5426 13.5099 0
1 35.0997 14.4749 0
1 35.6569 13.5099 0
1 36.214 14.4749 0
1 36.7711 13.5099 0
1 37.3283 14.4749 0
1 37.8854 13.5099 0
1 38.4426 14.4749 0
1 38.9997 13.5099 0
1 39.5568 14.4749 0
1 40.114 13.5099 0
1 40.6711 14.4749 0
1 41.2283 13.5099 0
1 41.7854 14.4749 0
1 42.3425 13.5099 0
1 42.8997 14.4749 0
1 43.4568 13.5099 0
1 44.0139 14.4749 0
1 44.5711 13.5099 0
1 45.1282 14.4749 0
1 45.6854 13.5099 0
1 46.2425 14.4749 0
1 46.7996 13.5099 0
1 47.3568 14.4749 0
1 47.9139 13.5099 0
1 48.4711 14.4749 0
1 49.0282 13.5099 0
1 49.5853 14.4749 0
1 50.1425 13.5099 0
1 50.6996 14.4749 0
1 51.2567 13.5099 0
1 51.8139 14.4749 0
1 52.371 13.5099 0
1 52.9282 14.4749 0
1 53.4853 13.5099 0
1 54.0424 14.4749 0
1 54.5996 13.5099 0
1 55.1567 14.4749 0
3 0 15.4399 0
3 0.557139 16.4049 0
3 1.11428 15.4399 0
3 1.67142 16.4049 0
3 2.22855 15.4399 0
3 2.78569 16.4049 0
3 3.34283 15.4399 0
3 3.89997 16.4049 0
3 4.45711 15.4399 0
3 5.01425 16.4049 0
3 5.57139 15.4399 0
3 6.12852 16.4049 0
3 6.68566 15.4399 0
3 7.2428 16.4049 0
3 7.79994 15.4399 0
3 8.35708 16.4049 0
3 8.91422 15.4399 0
3 9.47136 16.4049 0
3 10.0285 15.4399 0
3 10.5856 16.4049 0
3 11.1428 15.4399 0
3 11.6999 16.4049 0
3 12.257 15.4399 0
3 12.8142 16.4049 0
3 13.3713 15.4399 0
3 13.9285 16.4049 0
3 14.4856 15.4399 0
3 15.0427 16.4049 0
3 15.5999 15.4399 0
3 16.157 16.4049 0
3 16.7142 15.4399 0
3 17.2713 16.4049 0
3 17.8284 15.4399 0
3 18.3856 16.4049 0
3 18.9427 15.4399 0
3 19.4998 16.4049 0
3 20.057 15.4399 0
3 20.6141 16.4049 0
3 21.1713 15.4399 0
3 21.7284 16.4049 0
3 22.2855 15.4399 0
1 22.8427 16.4049 0
1 23.3998 15.4399 0
1 23.957 16.4049 0
1 24.5141 15.4399 0
1 25.0712 16.4049 0
1 25.6284 15.4399 0
1 26.1855 16.4049 0
1 26.7427 15.4399 0
1 27.2998 16.4049 0
1 27.8569 15.4399 0
1 28.4141 16.4049 0
1 28.9712 15.4399 0
1 29.5283 16.4049 0
1 30.0855 15.4399 0
1 30.6426 16.4049 0
1 31.1998 15.4399 0
1 31.7569 16.4049 0
1 32.314 15.4399 0
1 32.8712 16.4049 0
1 33.4283 15.4399 0
1 33.9855 16.4049 0
1 34.5426 15.4399 0
1 35.0997 16.4049 0
1 35.6569 15.4399 0
1 36.214 16.4049 0
1 36.7711 15.4399 0
1 37.3283 16.4049 0
1 37.8854 15.4399 0
1 38.4426 16.4049 0
1 38.9997 15.4399 0
1 39.5568 16.4049 0
1 40.114 15.4399 0
1 40.6711 16.4049 0
1 41.2283 15.4399 0
1 41.7854 16.4049 0
1 42.3425 15.4399 0
1 42.8997 16.4049 0
1 43.4568 15.4399 0
1 44.0139 16.4049 0
1 44.5711 15.4399 0
1 45.1282 16.4049 0
1 45.6854 15.4399 0
1 46.2425 16.4049 0
1 46.7996 15.4399 0
1 47.3568 16.4049 0
1 47.9139 15.4399 0
1 48.4711 16.4049 0
1 49.0282 15.4399 0
1 49.5853 16.4049 0
1 50.1425 15.4399 0
1 50.6996 16.4049 0
1 51.2567 15.4399 0
1 51.8139 16.4049 0
1 52.371 15.4399 0
1 52.9282 16.4049 0
1 53.4853 15.4399 0
1 54.0424 16.4049 0
1 54.5996 15.4399 0
1 55.1567 16.4049 0
3 0 17.3699 0
3 0.557139 18.3349 0
3 1.11428 17.3699 0
3 1.67142 18.3349 0
3 2.22855 17.3699 0
3 2.78569 18.3349 0
3 3.34283 17.3699 0
3 3.89997 18.3349 0
3 4.45711 17.3699 0
3 5.01425 18.3349 0
3 5.57139 17.3699 0
3 6.12852 18.3349 0
3 6.68566 17.3699 0
3 7.2428 18.3349 0
3 7.79994 17.3699 0
3 8.35708 18.3349 0
3 8.91422 17.3699 0
3 9.47136 18.3349 0
3 10.0285 17.3699 0
3 10.5856 18.3349 0
3 11.1428 17.3699 0
3 11.6999 18.3349 0
3 12.257 17.3699 0
3 12.8142 18.3349 0
3 13.3713 17.3699 0
3 13.9285 18.3349 0
3 14.4856 17.3699 0
3 15.0427 18.3349 0
3 15.5999 17.3699 0
3 16.157 18.3349 0
3 16.7142 17.3699 0
3 17.2713 18.3349 0
3 17.8284 17.3699 0
3 18.3856 18.3349 0
3 18.9427 17.3699 0
3 19.4998 18.3349 0
3 20.057 17.3699 0
3 20.6141 18.3349 0
3 21.1713 17.3699 0
3 21.7284 18.3349 0
3 22.2855 17.3699 0
1 22.8427 18.3349 0
1 23.3998 17.3699 0
1 23.957 18.3349 0
1 24.5141 17.3699 0
1 25.0712 18.3349 0
1 25.6284 17.3699 0
1 26.1855 18.3349 0
1 26.7427 17.3699 0
1 27.2998 18.3349 0
1 27.8569 17.3699 0
1 28.4141 18.3349 0
1 28.9712 17.3699 0
1 29.5283 18.3349 0
1 30.0855 17.3699 0
1 30.6426 18.3349 0
1 31.1998 17.3699 0
1 31.7569 18.3349 0
1 32.314 17.3699 0
1 32.8712 18.3349 0
1 33.4283 17.3699 0
1 33.9855 18.3349 0
1 34.5426 17.3699 0
1 35.0997 18.3349 0
1 35.6569 17.3699 0
1 36.214 18.3349 0
1 36.7711 17.3699 0
1 37.3283 18.3349 0
1 37.8854 17.3699 0
1 38.4426 18.3349 0
1 38.9997 17.3699 0
1 39.5568 18.3349 0
1 40.114 17.3699 0
1 40.6711 18.3349 0
1 41.2283 17.3699 0
1 41.7854 18.3349 0
1 42.3425 17.3699 0
1 42.8997 18.3349 0
1 43.4568 17.3699 0
1 44.0139 18.3349 0
1 44.5711 17.3699 0
1 45.1282 18.3349 0
1 45.6854 17.3699 0
1 46.2425 18.3349 0
1 46.7996 17.3699 0
1 47.3568 18.3349 0
1 47.9139 17.3699 0
1 48.4711 18.3349 0
1 49.0282 17.3699 0
1 49.5853 18.3349 0
1 50.1425 17.3699 0
1 50.6996 18.3349 0
1 51.2567 17.3699 0
1 51.8139 18.3349 0
1 52.371 17.3699 0
1 52.9282 18.3349 0
1 53.4853 17.3699 0
1 54.0424 18.3349 0
1 54.5996 17.3699 0
1 55.1567 18.3349 0
3 0 19.2998 0
3 0.557139 20.2648 0
3 1.11428 19.2998 0
3 1.67142 20.2648 0
3 2.22855 19.2998 0
3 2.78569 20.2648 0
3 3.34283 19.2998 0
3 3.89997 20.2648 0
3 4.45711 19.2998 0
3 5.01425 20.2648 0
3 5.57139 19.2998 0
3 6.12852 20.2648 0
3 6.68566 19.2998 0
3 7.2428 20.2648 0
3 7.79994 19.2998 0
3 8.35708 20.2648 0
3 8.91422 19.2998 0
3 9.47136 20.2648 0
3 10.0285 19.2998 0
3 10.5856 20.2648 0
3 11.1428 19.2998 0
3 11.6999 20.2648 0
3 12.257 19.2998 0
3 12.8142 20.2648 0
3 13.3713 19.2998 0
3 13.9285 20.2648 0
3 14.4856 19.2998 0
3 15.0427 20.2648 0
3 15.5999 19.2998 0
3 16.157 20.2648 0
3 16.7142 19.2998 0
3 17.2713 20.2648 0
3 17.8284 19.2998 0
3 18.3856 20.2648 0
3 18.9427 19.2998 0
3 19.4998 20.2648 0
3 20.057 19.2998 0
3 20.6141 20.2648 0
3 21.1713 19.2998 0
3 21.7284 20.2648 0
3 22.2855 19.2998 0
1 22.8427 20.2648 0
1 23.3998 19.2998 0
1 23.957 20.2648 0
1 24.5141 19.2998 0
1 25.0712 20.2648 0
1 25.6284 19.2998 0
1 26.1855 20.2648 0
1 26.7427 19.2998 0
1 27.2998 20.2648 0
1 27.8569 19.2998 0
1 28.4141 20.2648 0
1 28.9712 19.2998 0
1 29.5283 20.2648 0
1 30.0855 19.2998 0
1 30.6426 20.2648 0
1 31.1998 19.2998 0
1 31.7569 20.2648 0
1 32.314 19.2998 0
1 32.8712 20.2648 0
1 33.4283 19.2998 0
1 33.9855 20.2648 0
1 34.5426 19.2998 0
1 35.0997 20.2648 0
1 35.6569 19.2998 0
1 36.214 20.2648 0
1 36.7711 19.2998 0
1 37.3283 20.2648 0
1 37.8854 19.2998 0
1 38.4426 20.2648 0
1 38.9997 19.2998 0
1 39.5568 20.2648 0
1 40.114 19.2998 0
1 40.6711 20.2648 0
1 41.2283 19.2998 0
1 41.7854 20.2648 0
1 42.3425 19.2998 0
1 42.8997 20.2648 0
1 43.4568 19.2998 0
1 44.0139 20.2648 0
1 44.5711 19.2998 0
1 45.1282 20.2648 0
1 45.6854 19.2998 0
1 46.2425 20.2648 0
1 46.7996 19.2998 0
1 47.3568 20.2648 0
1 47.9139 19.2998 0
1 48.4711 20.2648 0
1 49.0282 19.2998 0
1 49.5853 20.2648 0
1 50.1425 19.2998 0
1 50.6996 20.2648 0
1 51.2567 19.2998 0
1 51.8139 20.2648 0
1 52.371 19.2998 0
1 52.9282 20.2648 0
1 53.4853 19.2998 0
1 54.0424 20.2648 0
1 54.5996 19.2998 0
1 55.1567 20.2648 0
3 0 21.2298 0
3 0.557139 22.1948 0
3 1.11428 21.2298 0
3 1.67142 22.1948 0
3 2.22855 21.2298 0
3 2.78569 22.1948 0
3 3.34283 21.2298 0
3 3.89997 22.1948 0
3 4.45711 21.2298 0
3 5.01425 22.1948 0
3 5.57139 21.2298 0
3 6.12852 22.1948 0
3 6.68566 21.2298 0
3 7.2428 22.1948 0
3 7.79994 21.2298 0
3 8.35708 22.1948 0
3 8.91422 21.2298 0
3 9.47136 22.1948 0
3 10.0285 21.2298 0
3 10.5856 22.1948 0
3 11.1428 21.2298 0
3 11.6999 22.1948 0
3 12.257 21.2298 0
3 12.8142 22.1948 0
3 13.3713 21.2298 0
3 13.9285 22.1948 0
3 14.4856 21.2298 0
3 15.0427 22.1948 0
3 15.5999 21.2298 0
3 16.157 22.1948 0
3 16.7142 21.2298 0
3 17.2713 22.1948 0
3 17.8284 21.2298 0
3 18.3856 22.1948 0
3 18.9427 21.2298 0
3 19.4998 22.1948 0
3 20.057 21.2298 0
3 20.6141 22.1948 0
3 21.1713 21.2298 0
3 21.7284 22.1948 0
3 22.2855 21.2298 0
1 22.8427 22.1948 0
1 23.3998 21.2298 0
1 23.957 22.1948 0
1 24.5141 21.2298 0
1 25.0712 22.1948 0
1 25.6284 21.2298 0
1 26.1855 22.1948 0
1 26.7427 21.2298 0
1 27.2998 22.1948 0
1 27.8569 21.2298 0
1 28.4141 22.1948 0
1 28.9712 21.2298 0
1 29.5283 22.1948 0
1 30.0855 21.2298 0
1 30.6426 22.1948 0
1 31.1998 21.2298 0
1 31.7569 22.1948 0
1 32.314 21.2298 0
1 32.8712 22.1948 0
1 33.4283 21.2298 0
1 33.9855 22.1948 0
1 34.5426 21.2298 0
1 35.0997 22.1948 0
1 35.6569 21.2298 0
1 36.214 22.1948 0
1 36.7711 21.2298 0
1 37.3283 22.1948 0
1 37.8854 21.2298 0
1 38.4426 22.1948 0
1 38.9997 21.2298 0
1 39.5568 22.1948 0
1 40.114 21.2298 0
1 40.6711 22.1948 0
1 41.2283 21.2298 0
1 41.7854 22.1948 0
1 42.3425 21.2298 0
1 42.8997 22.1948 0
1 43.4568 21.2298 0
1 44.0139 22.1948 0
1 44.5711 21.2298 0
1 45.1282 22.1948 0
1 45.6854 21.2298 0
1 46.2425 22.1948 0
1 46.7996 21.2298 0
1 47.3568 22.1948 0
1 47.9139 21.2298 0
1 48.4711 22.1948 0
1 49.0282 21.2298 0
1 49.5853 22.1948 0
1 50.1425 21.2298 0
1 50.6996 22.1948 0
1 51.2567 21.2298 0
1 51.8139 22.1948 0
1 52.371 21.2298 0
1 52.9282 22.1948 0
1 53.4853 21.2298 0
1 54.0424 22.1948 0
1 54.5996 21.2298 0
1 55.1567 22.1948 0
3 0 23.1598 0
3 0.557139 24.1248 0
3 1.11428 23.1598 0
3 1.67142 24.1248 0
3 2.22855 23.1598 0
3 2.78569 24.1248 0
3 3.34283 23.1598 0
3 3.89997 24.1248 0
3 4.45711 23.1598 0
3 5.01425 24.1248 0
3 5.57139 23.1598 0
3 6.12852 24.1248 0
3 6.68566 23.1598 0
3 7.2428 24.1248 0
3 7.79994 23.1598 0
3 8.35708 24.1248 0
3 8.91422 23.1598 0
3 9.47136 24.1248 0
3 10.0285 23.1598 0
3 10.5856 24.1248 0
3 11.1428 23.1598 0
3 11.6999 24.1248 0
3 12.257 23.1598 0
3 12.8142 24.1248 0
3 13.3713 23.1598 0
3 13.9285 24.1248 0
3 14.4856 23.1598 0
3 15.0427 24.1248 0
3 15.5999 23.1598 0
3 16.157 24.1248 0
3 16.7142 23.1598 0
3 17.2713 24.1248 0
3 17.8284 23.1598 0
3 18.3856 24.1248 0
3 18.9427 23.1598 0
3 19.4998 24.1248 0
3 20.057 23.1598 0
3 20.6141 24.1248 0
3 21.1713 23.1598 0
3 21.7284 24.1248 0
3 22.2855 23.1598 0
1 22.8427 24.1248 0
1 23.3998 23.1598 0
1 23.957 24.1248 0
1 24.5141 23.1598 0
1 25.0712 24.1248 0
1 25.6284 23.1598 0
1 26.1855 24.1248 0
1 26.7427 23.1598 0
1 27.2998 24.1248 0
1 27.8569 23.1598 0
1 28.4141 24.1248 0
1 28.9712 23.1598 0
1 29.5283 24.1248 0
1 30.0855 23.1598 0
1 30.6426 24.1248 0
1 31.1998 23.1598 0
1 31.7569 24.1248 0
1 32.314 23.1598 0
1 32.8712 24.1248 0
1 33.4283 23.1598 0
1 33.9855 24.1248 0
1 34.5426 23.1598 0
1 35.0997 24.1248 0
1 35.6569 23.1598 0
1 36.214 24.1248 0
1 36.7711 23.1598 0
1 37.3283 24.1248 0
1 37.8854 23.1598 0
1 38.4426 24.1248 0
1 38.9997 23.1598 0
1 39.5568 24.1248 0
1 40.114 23.1598 0
1 40.6711 24.1248 0
1 41.2283 23.1598 0
1 41.7854 24.1248 0
1 42.3425 23.1598 0
1 42.8997 24.1248 0
1 43.4568 23.1598 0
1 44.0139 24.1248 0
1 44.5711 23.1598 0
1 45.1282 24.1248 0
1 45.6854 23.1598 0
1 46.2425 24.1248 0
1 46.7996 23.1598 0
1 47.3568 24.1248 0
1 47.9139 23.1598 0
1 48.4711 24.1248 0
1 49.0282 23.1598 0
1 49.5853 24.1248 0
1 50.1425 23.1598 0
1 50.6996 24.1248 0
1 51.2567 23.1598 0
1 51.8139 24.1248 0
1 52.371 23.1598 0
1 52.9282 24.1248 0
1 53.4853 23.1598 0
1 54.0424 24.1248 0
1 54.5996 23.1598 0
1 55.1567 24.1248 0
3 0 25.0898 0
3 0.557139 26.0548 0
3 1.11428 25.0898 0
3 1.67142 26.0548 0
3 2.22855 25.0898 0
3 2.78569 26.0548 0
3 3.34283 25.0898 0
3 3.89997 26.0548 0
3 4.45711 25.0898 0
3 5.01425 26.0548 0
3 5.57139 25.0898 0
3 6.12852 26.0548 0
3 6.68566 25.0898 0
3 7.2428 26.0548 0
3 7.79994 25.0898 0
3 8.35708 26.0548 0
3 8.91422 25.0898 0
3 9.47136 26.0548 0
3 10.0285 25.0898 0
3 10.5856 26.0548 0
3 11.1428 25.0898 0
3 11.6999 26.0548 0
3 12.257 25.0898 0
3 12.8142 26.0548 0
3 13.3713 25.0898 0
3 13.9285 26.0548 0
3 14.4856 25.0898 0
3 15.0427 26.0548 0
3 15.5999 25.0898 0
3 16.157 26.0548 0
3 16.7142 25.0898 0
3 17.2713 26.0548 0
3 17.8284 25.0898 0
3 18.3856 26.0548 0
3 18.9427 25.0898 0
3 19.4998 26.0548 0
3 20.057 25.0898 0
3 20.6141 26.0548 0
3 21.1713 25.0898 0
3 21.7284 26.0548 0
3 22.2855 25.0898 0
1 22.8427 26.0548 0
1 23.3998 25.0898 0
1 23.957 26.0548 0
1 24.5141 25.0898 0
1 25.0712 26.0548 0
1 25.6284 25.0898 0
1 26.1855 26.0548 0
1 26.7427 25.0898 0
1 27.2998 26.0548 0
1 27.8569 25.0898 0
1 28.4141 26.0548 0
1 28.9712 25.0898 0
1 29.5283 26.0548 0
1 30.0855 25.0898 0
1 30.6426 26.0548 0
1 31.1998 25.0898 0
1 31.7569 26.0548 0
1 32.314 25.0898 0
1 32.8712 26.0548 0
1 33.4283 25.0898 0
1 33.9855 26.0548 0
1 34.5426 25.0898 0
1 35.0997 26.0548 0
1 35.6569 25.0898 0
1 36.214 26.0548 0
1 36.7711 25.0898 0
1 37.3283 26.0548 0
1 37.8854 25.0898 0
1 38.4426 26.0548 0
1 38.9997 25.0898 0
1 39.5568 26.0548 0
1 40.114 25.0898 0
1 40.6711 26.0548 0
1 41.2283 25.0898 0
1 41.7854 26.0548 0
1 42.3425 25.0898 0
1 42.8997 26.0548 0
1 43.4568 25.0898 0
1 44.0139 26.0548 0
1 44.5711 25.0898 0
1 45.1282 26.0548 0
1 45.6854 25.0898 0
1 46.2425 26.0548 0
1 46.7996 25.0898 0
1 47.3568 26.0548 0
1 47.9139 25.0898 0
1 48.4711 26.0548 0
1 49.0282 25.0898 0
1 49.5853 26.0548 0
1 50.1425 25.0898 0
1 50.6996 26.0548 0
1 51.2567 25.0898 0
1 51.8139 26.0548 0
1 52.371 25.0898 0
1 52.9282 26.0548 0
1 53.4853 25.0898 0
1 54.0424 26.0548 0
1 54.5996 25.0898 0
1 55.1567 26.0548 0
3 0 27.0198 0
3 0.557139 27.9848 0
3 1.11428 27.0198 0
3 1.67142 27.9848 0
3 2.22855 27.0198 0
3 2.78569 27.9848 0
3 3.34283 27.0198 0
3 3.89997 27.9848 0
3 4.45711 27.0198 0
3 5.01425 27.9848 0
3 5.57139 27.0198 0
3 6.12852 27.9848 0
3 6.68566 27.0198 0
3 7.2428 27.9848 0
3 7.79994 27.0198 0
3 8.35708 27.9848 0
3 8.91422 27.0198 0
3 9.47136 27.9848 0
3 10.0285 27.0198 0
3 10.5856 27.9848 0
3 11.1428 27.0198 0
3 11.6999 27.9848 0
3 12.257 27.0198 0
3 12.8142 27.9848 0
3 13.3713 27.0198 0
3 13.9285 27.9848 0
3 14.4856 27.0198 0
3 15.0427 27.9848 0
3 15.5999 27.0198 0
3 16.157 27.9848 0
3 16.7142 27.0198 0
3 17.2713 27.9848 0
3 17.8284 27.0198 0
3 18.3856 27.9848 0
3 18.9427 27.0198 0
3 19.4998 27.9848 0
3 20.057 27.0198 0
3 20.6141 27.9848 0
3 21.1713 27.0198 0
3 21.7284 27.9848 0
3 22.2855 27.0198 0
1 22.8427 27.9848 0
1 23.3998 27.0198 0
1 23.957 27.9848 0
1 24.5141 27.0198 0
1 25.0712 27.9848 0
1 25.6284 27.0198 0
1 26.1855 27.9848 0
1 26.7427 27.0198 0
1 27.2998 27.9848 0
1 27.8569 27.0198 0
1 28.4141 27.9848 0
1 28.9712 27.0198 0
1 29.5283 27.9848 0
1 30.0855 27.0198 0
1 30.6426 27.9848 0
1 31.1998 27.0198 0
1 31.7569 27.9848 0
1 32.314 27.0198 0
1 32.8712 27.9848 0
1 33.4283 27.0198 0
1 33.9855 27.9848 0
1 34.5426 27.0198 0
1 35.0997 27.9848 0
1 35.6569 27.0198 0
1 36.214 27.9848 0
1 36.7711 27.0198 0
1 37.3283 27.9848 0
1 37.8854 27.0198 0
1 38.4426 27.9848 0
1 38.9997 27.0198 0
1 39.5568 27.9848 0
1 40.114 27.0198 0
1 40.6711 27.9848 0
1 41.2283 27.0198 0
1 41.7854 27.9848 0
1 42.3425 27.0198 0
1 42.8997 27.9848 0
1 43.4568 27.0198 0
1 44.0139 27.9848 0
1 44.5711 27.0198 0
1 45.1282 27.9848 0
1 45.6854 27.0198 0
1 46.2425 27.9848 0
1 46.7996 27.0198 0
1 47.3568 27.9848 0
1 47.9139 27.0198 0
1 48.4711 27.9848 0
1 49.0282 27.0198 0
1 49.5853 27.9848 0
1 50.1425 27.0198 0
1 50.6996 27.9848 0
1 51.2567 27.0198 0
1 51.8139 27.9848 0
1 52.371 27.0198 0
1 52.9282 27.9848 0
1 53.4853 27.0198 0
1 54.0424 27.9848 0
1 54.5996 27.0198 0
1 55.1567 27.9848 0
3 0 28.9498 0
3 0.557139 29.9148 0
3 1.11428 28.9498 0
3 1.67142 29.9148 0
3 2.22855 28.9498 0
3 2.78569 29.9148 0
3 3.34283 28.9498 0
3 3.89997 29.9148 0
3 4.45711 28.9498 0
3 5.01425 29.9148 0
3 5.57139 28.9498 0
3 6.12852 29.9148 0
3 6.68566 28.9498 0
3 7.2428 29.9148 0
3 7.79994 28.9498 0
3 8.35708 29.9148 0
3 8.91422 28.9498 0
3 9.47136 29.9148 0
3 10.0285 28.9498 0
3 10.5856 29.9148 0
3 11.1428 28.9498 0
3 11.6999 29.9148 0